DAV:   1    -1.000000E+01
DAV:   2    -1.010000E+01
DAV:   3    -1.015000E+01
DAV:   4    -1.017000E+01
DAV:   5    -1.018000E+01
DAV:   6    -1.018500E+01
DAV:   7    -1.018700E+01
DAV:   8    -1.018800E+01
DAV:   9    -1.018820E+01
DAV:  10    -1.018830E+01
DAV:  11    -1.018831E+01
DAV:  12    -1.018832E+01
DAV:  13    -1.018833E+01
DAV:  14    -1.018834E+01
DAV:  15    -1.018835E+01
DAV:  16    -1.018836E+01
DAV:  17    -1.018837E+01
DAV:  18    -1.018838E+01
DAV:  19    -1.018839E+01
DAV:  20    -1.018840E+01
DAV:  21    -1.018841E+01
DAV:  22    -1.018842E+01
DAV:  23    -1.018843E+01
DAV:  24    -1.018844E+01
DAV:  25    -1.018845E+01
DAV:  26    -1.018846E+01
DAV:  27    -1.018847E+01
DAV:  28    -1.018848E+01
DAV:  29    -1.018849E+01
DAV:  30    -1.018850E+01
DAV:  31    -1.018851E+01
DAV:  32    -1.018852E+01
DAV:  33    -1.018853E+01
DAV:  34    -1.018854E+01
DAV:  35    -1.018855E+01
DAV:  36    -1.018856E+01
DAV:  37    -1.018857E+01
DAV:  38    -1.018858E+01
DAV:  39    -1.018859E+01
DAV:  40    -1.018860E+01
  1 F= -.10188600E+01 E0= -.10187000E+01  d E =-.188600E-01
